/*--------------------------------*- C++ -*----------------------------------*\
  =========                 |
  \\      /  F ield         | OpenFOAM: The Open Source CFD Toolbox
   \\    /   O peration     | Website:  https://openfoam.org
    \\  /    A nd           | Version:  10
     \\/     M anipulation  |
\*---------------------------------------------------------------------------*/
FoamFile
{
    format      ascii;
    class       volScalarField;
    location    "0";
    object      T;
}
// * * * * * * * * * * * * * * * * * * * * * * * * * * * * * * * * * * * * * //

dimensions      [0 0 0 1 0 0 0];

internalField   nonuniform List<scalar> 
100
(
0.0941083
0.278991
0.453991
0.612907
0.750111
0.860742
0.940881
0.987688
0.999507
0.975917
0.917755
0.82708
0.707107
0.562083
0.397148
0.218143
0.0314104
-0.156435
-0.338738
-0.509042
-0.661312
-0.790155
-0.891007
-0.960294
-0.995562
-0.995562
-0.960294
-0.891006
-0.790155
-0.661311
-0.509041
-0.338737
-0.156434
0.0314115
0.218144
0.397149
0.562084
0.707107
0.827081
0.917755
0.975917
0.999507
0.987688
0.94088
0.860742
0.75011
0.612906
0.45399
0.27899
0.0941073
-0.0941094
-0.278992
-0.453991
-0.612908
-0.750112
-0.860743
-0.940881
-0.987689
-0.999507
-0.975916
-0.917754
-0.82708
-0.707106
-0.562082
-0.397147
-0.218142
-0.0314094
0.156436
0.338739
0.509043
0.661313
0.790156
0.891007
0.960294
0.995562
0.995562
0.960293
0.891006
0.790154
0.661311
0.50904
0.338736
0.156433
-0.0314125
-0.218145
-0.39715
-0.562085
-0.707108
-0.827082
-0.917755
-0.975917
-0.999507
-0.987688
-0.94088
-0.860741
-0.75011
-0.612905
-0.453989
-0.278989
-0.0941063
)
;

boundaryField
{
    inlet
    {
        type            cyclic;
    }
    outlet
    {
        type            cyclic;
    }
    top
    {
        type            slip;
    }
    bottom
    {
        type            slip;
    }
    frontAndBack
    {
        type            empty;
    }
}


// ************************************************************************* //
