/*--------------------------------*- C++ -*----------------------------------*\
  =========                 |
  \\      /  F ield         | OpenFOAM: The Open Source CFD Toolbox
   \\    /   O peration     | Website:  https://openfoam.org
    \\  /    A nd           | Version:  10
     \\/     M anipulation  |
\*---------------------------------------------------------------------------*/
FoamFile
{
    format      ascii;
    class       volScalarField;
    location    "0";
    object      T;
}
// * * * * * * * * * * * * * * * * * * * * * * * * * * * * * * * * * * * * * //

dimensions      [0 0 0 1 0 0 0];

internalField   nonuniform List<scalar> 
300
(
4.7122
14.1319
23.5377
32.9203
42.2704
51.5787
60.8362
70.0336
79.1619
88.2121
97.1752
106.042
114.805
123.454
131.982
140.379
148.638
156.75
164.707
172.502
180.126
187.573
194.834
201.904
208.774
215.438
221.889
228.122
234.129
239.905
245.445
250.742
255.792
260.589
265.13
269.408
273.421
277.164
280.633
283.826
286.738
289.367
291.711
293.767
295.533
297.007
298.188
299.075
299.667
299.963
299.963
299.667
299.075
298.188
297.007
295.533
293.767
291.711
289.367
286.738
283.826
280.633
277.164
273.421
269.408
265.13
260.589
255.792
250.742
245.445
239.905
234.129
228.122
221.889
215.438
208.774
201.904
194.834
187.573
180.126
172.502
164.707
156.749
148.638
140.379
131.982
123.454
114.805
106.042
97.1751
88.212
79.1618
70.0335
60.8361
51.5786
42.2703
32.9202
23.5376
14.1318
4.71209
-4.7123
-14.132
-23.5378
-32.9204
-42.2705
-51.5788
-60.8363
-70.0337
-79.162
-88.2122
-97.1753
-106.043
-114.805
-123.454
-131.982
-140.379
-148.638
-156.75
-164.707
-172.502
-180.126
-187.573
-194.835
-201.904
-208.774
-215.438
-221.889
-228.122
-234.129
-239.905
-245.445
-250.742
-255.792
-260.59
-265.13
-269.408
-273.421
-277.164
-280.633
-283.826
-286.738
-289.367
-291.711
-293.767
-295.533
-297.007
-298.188
-299.075
-299.667
-299.963
-299.963
-299.667
-299.075
-298.188
-297.007
-295.533
-293.767
-291.711
-289.367
-286.738
-283.826
-280.633
-277.164
-273.421
-269.408
-265.13
-260.589
-255.792
-250.742
-245.445
-239.905
-234.129
-228.122
-221.889
-215.438
-208.774
-201.904
-194.834
-187.573
-180.126
-172.501
-164.707
-156.749
-148.637
-140.379
-131.982
-123.454
-114.805
-106.042
-97.175
-88.2119
-79.1617
-70.0334
-60.836
-51.5785
-42.2702
-32.9201
-23.5375
-14.1317
-4.71199
4.7124
14.1321
23.5379
32.9205
42.2706
51.5789
60.8364
70.0338
79.1621
88.2123
97.1754
106.043
114.805
123.455
131.982
140.379
148.638
156.75
164.707
172.502
180.126
187.573
194.835
201.904
208.774
215.438
221.889
228.122
234.129
239.906
245.445
250.742
255.792
260.59
265.13
269.408
273.421
277.164
280.633
283.826
286.738
289.367
291.711
293.767
295.533
297.007
298.188
299.075
299.667
299.963
299.963
299.667
299.075
298.188
297.007
295.533
293.767
291.711
289.367
286.738
283.826
280.633
277.164
273.421
269.408
265.13
260.589
255.792
250.742
245.445
239.905
234.129
228.122
221.889
215.438
208.774
201.904
194.834
187.573
180.126
172.501
164.707
156.749
148.637
140.379
131.981
123.454
114.805
106.042
97.1749
88.2118
79.1616
70.0333
60.8359
51.5784
42.2701
32.92
23.5374
14.1316
4.71188
)
;

boundaryField
{
    xMin
    {
        type            fixedValue;
        value           uniform 0;
    }
    xMax
    {
        type            fixedValue;
        value           uniform 0;
    }
    frontAndBack
    {
        type            empty;
    }
}


// ************************************************************************* //
